# Converted from POSCAR to lammps format

40 atoms

4 atom types

0.000000    7.737800   xlo xhi
0.000000    7.737800   ylo yhi
0.000000    7.737800   zlo zhi

Masses

1 138.90547  # La
2 6.9410000  # Li
3 47.867000  # Ti
4 15.999400  # O

Atoms

1 1 1.8 0.330696 0.043070 3.873686
2 1 1.8 0.214293 0.031212 0.086754
3 1 1.8 4.126614 0.027197 0.126637
4 1 1.8 0.108168 3.925660 7.691557
5 2 0.6 4.502779 0.374050 4.099002
6 2 0.6 0.742364 3.943821 4.170183
7 2 0.6 4.335364 3.917580 4.488786
8 2 0.6 4.473745 3.934685 0.331625
9 3 2.4 5.975363 2.085347 5.789913
10 3 2.4 2.226198 2.017863 5.763616
11 3 2.4 2.177426 2.069344 1.969892
12 3 2.4 5.983753 5.831224 5.748988
13 3 2.4 2.226461 5.807999 5.765378
14 3 2.4 5.875011 2.058508 2.088798
15 3 2.4 5.855824 5.784635 2.126610
16 3 2.4 2.174680 5.745346 1.979881
17 4 -1.2 0.078079 2.317129 5.494344
18 4 -1.2 5.496746 2.272434 3.868886
19 4 -1.2 3.988220 1.565851 5.954091
20 4 -1.2 2.173789 0.027929 1.619239
21 4 -1.2 5.596904 3.884444 6.222512
22 4 -1.2 0.018656 1.680896 2.076090
23 4 -1.2 3.983957 6.173202 5.997863
24 4 -1.2 2.399434 3.892375 5.486543
25 4 -1.2 2.176316 6.072087 3.807366
26 4 -1.2 0.074581 5.464001 5.502873
27 4 -1.2 6.204359 0.006475 5.405729
28 4 -1.2 1.652013 3.899210 2.094100
29 4 -1.2 2.221353 1.696870 3.796473
30 4 -1.2 3.950852 2.215174 1.478500
31 4 -1.2 1.695542 0.021998 5.920567
32 4 -1.2 0.013365 6.122419 2.081183
33 4 -1.2 1.723084 2.120186 7.646964
34 4 -1.2 5.529068 5.430538 3.873353
35 4 -1.2 6.093080 3.895161 1.570756
36 4 -1.2 6.135343 6.154331 7.666417
37 4 -1.2 3.948745 5.582413 1.486405
38 4 -1.2 6.126969 1.622939 7.671759
39 4 -1.2 5.537948 0.022881 2.238855
40 4 -1.2 1.717573 5.683633 7.656092
