LAMMPS data file via write_data, version 23 Jun 2022, timestep = 2950000

6275 atoms
100 atom types
6160 bonds
100 bond types
11375 angles
100 angle types
12810 dihedrals
100 dihedral types
7040 impropers
100 improper types

0 39.3744559636475 xlo xhi
0 39.3744559636475 ylo yhi
0 39.3744559636475 zlo zhi

Masses

1 12.01115
2 12.01115
3 12.01115
4 12.01115
5 1.00797
6 15.9994
7 1
8 1
9 1
10 1
11 1
12 1
13 1
14 1
15 1
16 1
17 1
18 1
19 1
20 1
21 1
22 1
23 1
24 1
25 1
26 1
27 1
28 1
29 1
30 1
31 1
32 1
33 1
34 1
35 1
36 1
37 1
38 1
39 1
40 1
41 1
42 1
43 1
44 1
45 1
46 1
47 1
48 1
49 1
50 1
51 1
52 1
53 1
54 1
55 1
56 1
57 1
58 1
59 1
60 1
61 1
62 1
63 1
64 1
65 1
66 1
67 1
68 1
69 1
70 1
71 1
72 1
73 1
74 1
75 1
76 1
77 1
78 1
79 1
80 1
81 1
82 1
83 1
84 1
85 1
86 1
87 1
88 1
89 1
90 6.941
91 12.01115
92 18.9984
93 14.0067
94 15.9994
95 32.064
96 1
97 1
98 1
99 1
100 1

Pair Coeffs # lj/class2/coul/long

1 0.0634 3.7584
2 0.0674 3.6348
3 0.071 3.884
4 0.0688 3.8727
5 0.023 2.878
6 0.12 3.3
7 0.1 3
8 0.1 3
9 0.1 3
10 0.1 3
11 0.1 3
12 0.1 3
13 0.1 3
14 0.1 3
15 0.1 3
16 0.1 3
17 0.1 3
18 0.1 3
19 0.1 3
20 0.1 3
21 0.1 3
22 0.1 3
23 0.1 3
24 0.1 3
25 0.1 3
26 0.1 3
27 0.1 3
28 0.1 3
29 0.1 3
30 0.1 3
31 0.1 3
32 0.1 3
33 0.1 3
34 0.1 3
35 0.1 3
36 0.1 3
37 0.1 3
38 0.1 3
39 0.1 3
40 0.1 3
41 0.1 3
42 0.1 3
43 0.1 3
44 0.1 3
45 0.1 3
46 0.1 3
47 0.1 3
48 0.1 3
49 0.1 3
50 0.1 3
51 0.1 3
52 0.1 3
53 0.1 3
54 0.1 3
55 0.1 3
56 0.1 3
57 0.1 3
58 0.1 3
59 0.1 3
60 0.1 3
61 0.1 3
62 0.1 3
63 0.1 3
64 0.1 3
65 0.1 3
66 0.1 3
67 0.1 3
68 0.1 3
69 0.1 3
70 0.1 3
71 0.1 3
72 0.1 3
73 0.1 3
74 0.1 3
75 0.1 3
76 0.1 3
77 0.1 3
78 0.1 3
79 0.1 3
80 0.1 3
81 0.1 3
82 0.1 3
83 0.1 3
84 0.1 3
85 0.1 3
86 0.1 3
87 0.1 3
88 0.1 3
89 0.1 3
90 0.3727 1.635
91 0.04 3.75
92 0.0488 3.421
93 0.1643 3.89
94 0.2029 3.5432
95 0.25 4.027
96 0.1 3
97 0.1 3
98 0.1 3
99 0.1 3
100 0.1 3

Bond Coeffs # class2

1 1.53 299.67 -501.77 679.81
2 1.101 345 -691.89 844.6
3 1.53 299.67 -501.77 679.81
4 1.101 345 -691.89 844.6
5 1.42 400.4 -835.2 1313
6 1.101 345 -691.89 844.6
7 1.53 299.67 -501.77 679.81
8 1.42 400.4 -835.2 1313
9 1.101 345 -691.89 844.6
10 1 1 1 1
11 1 1 1 1
12 1 1 1 1
13 1 1 1 1
14 1 1 1 1
15 1 1 1 1
16 1 1 1 1
17 1 1 1 1
18 1 1 1 1
19 1 1 1 1
20 1 1 1 1
21 1 1 1 1
22 1 1 1 1
23 1 1 1 1
24 1 1 1 1
25 1 1 1 1
26 1 1 1 1
27 1 1 1 1
28 1 1 1 1
29 1 1 1 1
30 1 1 1 1
31 1 1 1 1
32 1 1 1 1
33 1 1 1 1
34 1 1 1 1
35 1 1 1 1
36 1 1 1 1
37 1 1 1 1
38 1 1 1 1
39 1 1 1 1
40 1 1 1 1
41 1 1 1 1
42 1 1 1 1
43 1 1 1 1
44 1 1 1 1
45 1 1 1 1
46 1 1 1 1
47 1 1 1 1
48 1 1 1 1
49 1 1 1 1
50 1 1 1 1
51 1 1 1 1
52 1 1 1 1
53 1 1 1 1
54 1 1 1 1
55 1 1 1 1
56 1 1 1 1
57 1 1 1 1
58 1 1 1 1
59 1 1 1 1
60 1 1 1 1
61 1 1 1 1
62 1 1 1 1
63 1 1 1 1
64 1 1 1 1
65 1 1 1 1
66 1 1 1 1
67 1 1 1 1
68 1 1 1 1
69 1 1 1 1
70 1 1 1 1
71 1 1 1 1
72 1 1 1 1
73 1 1 1 1
74 1 1 1 1
75 1 1 1 1
76 1 1 1 1
77 1 1 1 1
78 1 1 1 1
79 1 1 1 1
80 1 1 1 1
81 1 1 1 1
82 1 1 1 1
83 1 1 1 1
84 1 1 1 1
85 1 1 1 1
86 1 1 1 1
87 1 1 1 1
88 1 1 1 1
89 1 1 1 1
90 1 1 1 1
91 1.35 403.03 0 0
92 1.795 257.33 0 0
93 1.4308 743.76 0 0
94 1.5944 205.78 0 0
95 1 1 1 1
96 1 1 1 1
97 1 1 1 1
98 1 1 1 1
99 1 1 1 1
100 1 1 1 1

Angle Coeffs # class2

1 110.77 41.453 -10.604 5.129
2 107.66 39.641 -12.921 -2.4318
3 112.67 39.516 -7.443 -9.5583
4 110.77 41.453 -10.604 5.129
5 110.77 41.453 -10.604 5.129
6 107.66 39.641 -12.921 -2.4318
7 111.27 54.538 -8.3642 -13.084
8 110.77 41.453 -10.604 5.129
9 108.73 58.545 -10.809 -12.401
10 107.66 39.641 -12.921 -2.4318
11 104.5 35.745 -10.007 -6.2729
12 111.27 54.538 -8.3642 -13.084
13 110.77 41.453 -10.604 5.129
14 104.5 35.745 -10.007 -6.2729
15 108.73 58.545 -10.809 -12.401
16 107.66 39.641 -12.921 -2.4318
17 100 50 0 0
18 100 50 0 0
19 100 50 0 0
20 100 50 0 0
21 100 50 0 0
22 100 50 0 0
23 100 50 0 0
24 100 50 0 0
25 100 50 0 0
26 100 50 0 0
27 100 50 0 0
28 100 50 0 0
29 100 50 0 0
30 100 50 0 0
31 100 50 0 0
32 100 50 0 0
33 100 50 0 0
34 100 50 0 0
35 100 50 0 0
36 100 50 0 0
37 100 50 0 0
38 100 50 0 0
39 100 50 0 0
40 100 50 0 0
41 100 50 0 0
42 100 50 0 0
43 100 50 0 0
44 100 50 0 0
45 100 50 0 0
46 100 50 0 0
47 100 50 0 0
48 100 50 0 0
49 100 50 0 0
50 100 50 0 0
51 100 50 0 0
52 100 50 0 0
53 100 50 0 0
54 100 50 0 0
55 100 50 0 0
56 100 50 0 0
57 100 50 0 0
58 100 50 0 0
59 100 50 0 0
60 100 50 0 0
61 100 50 0 0
62 100 50 0 0
63 100 50 0 0
64 100 50 0 0
65 100 50 0 0
66 100 50 0 0
67 100 50 0 0
68 100 50 0 0
69 100 50 0 0
70 100 50 0 0
71 100 50 0 0
72 100 50 0 0
73 100 50 0 0
74 100 50 0 0
75 100 50 0 0
76 100 50 0 0
77 100 50 0 0
78 100 50 0 0
79 100 50 0 0
80 100 50 0 0
81 100 50 0 0
82 100 50 0 0
83 100 50 0 0
84 100 50 0 0
85 100 50 0 0
86 100 50 0 0
87 100 50 0 0
88 100 50 0 0
89 100 50 0 0
90 100 50 0 0
91 109.1 71.97 0 0
92 109.5 60 0 0
93 109.5 50 0 0
94 109.5 50 0 0
95 119.33 135 0 0
96 109.5 50 0 0
97 120 50 0 0
98 100 50 0 0
99 100 50 0 0
100 100 50 0 0

BondBond Coeffs

1 3.3872 1.53 1.101
2 5.3316 1.101 1.101
3 0 1.53 1.53
4 3.3872 1.53 1.101
5 3.3872 1.53 1.101
6 5.3316 1.101 1.101
7 11.432 1.53 1.42
8 3.3872 1.53 1.101
9 23.198 1.101 1.42
10 5.3316 1.101 1.101
11 -7.1131 1.42 1.42
12 11.432 1.53 1.42
13 3.3872 1.53 1.101
14 -7.1131 1.42 1.42
15 23.198 1.101 1.42
16 5.3316 1.101 1.101
17 0 1 1
18 0 1 1
19 0 1 1
20 0 1 1
21 0 1 1
22 0 1 1
23 0 1 1
24 0 1 1
25 0 1 1
26 0 1 1
27 0 1 1
28 0 1 1
29 0 1 1
30 0 1 1
31 0 1 1
32 0 1 1
33 0 1 1
34 0 1 1
35 0 1 1
36 0 1 1
37 0 1 1
38 0 1 1
39 0 1 1
40 0 1 1
41 0 1 1
42 0 1 1
43 0 1 1
44 0 1 1
45 0 1 1
46 0 1 1
47 0 1 1
48 0 1 1
49 0 1 1
50 0 1 1
51 0 1 1
52 0 1 1
53 0 1 1
54 0 1 1
55 0 1 1
56 0 1 1
57 0 1 1
58 0 1 1
59 0 1 1
60 0 1 1
61 0 1 1
62 0 1 1
63 0 1 1
64 0 1 1
65 0 1 1
66 0 1 1
67 0 1 1
68 0 1 1
69 0 1 1
70 0 1 1
71 0 1 1
72 0 1 1
73 0 1 1
74 0 1 1
75 0 1 1
76 0 1 1
77 0 1 1
78 0 1 1
79 0 1 1
80 0 1 1
81 0 1 1
82 0 1 1
83 0 1 1
84 0 1 1
85 0 1 1
86 0 1 1
87 0 1 1
88 0 1 1
89 0 1 1
90 0 1 1
91 0 1.35 1.35
92 0 1.35 1.795
93 0 1.795 1.4308
94 0 1.795 1.5944
95 0 1.4308 1.4308
96 0 1.5944 1.4308
97 0 1.5944 1.5944
98 0 1 1
99 0 1 1
100 0 1 1

BondAngle Coeffs

1 20.754 11.421 1.53 1.101
2 18.103 18.103 1.101 1.101
3 8.016 8.016 1.53 1.53
4 20.754 11.421 1.53 1.101
5 20.754 11.421 1.53 1.101
6 18.103 18.103 1.101 1.101
7 2.6868 20.403 1.53 1.42
8 20.754 11.421 1.53 1.101
9 4.6189 55.327 1.101 1.42
10 18.103 18.103 1.101 1.101
11 -2.8112 -2.8112 1.42 1.42
12 2.6868 20.403 1.53 1.42
13 20.754 11.421 1.53 1.101
14 -2.8112 -2.8112 1.42 1.42
15 4.6189 55.327 1.101 1.42
16 18.103 18.103 1.101 1.101
17 0 0 1 1
18 0 0 1 1
19 0 0 1 1
20 0 0 1 1
21 0 0 1 1
22 0 0 1 1
23 0 0 1 1
24 0 0 1 1
25 0 0 1 1
26 0 0 1 1
27 0 0 1 1
28 0 0 1 1
29 0 0 1 1
30 0 0 1 1
31 0 0 1 1
32 0 0 1 1
33 0 0 1 1
34 0 0 1 1
35 0 0 1 1
36 0 0 1 1
37 0 0 1 1
38 0 0 1 1
39 0 0 1 1
40 0 0 1 1
41 0 0 1 1
42 0 0 1 1
43 0 0 1 1
44 0 0 1 1
45 0 0 1 1
46 0 0 1 1
47 0 0 1 1
48 0 0 1 1
49 0 0 1 1
50 0 0 1 1
51 0 0 1 1
52 0 0 1 1
53 0 0 1 1
54 0 0 1 1
55 0 0 1 1
56 0 0 1 1
57 0 0 1 1
58 0 0 1 1
59 0 0 1 1
60 0 0 1 1
61 0 0 1 1
62 0 0 1 1
63 0 0 1 1
64 0 0 1 1
65 0 0 1 1
66 0 0 1 1
67 0 0 1 1
68 0 0 1 1
69 0 0 1 1
70 0 0 1 1
71 0 0 1 1
72 0 0 1 1
73 0 0 1 1
74 0 0 1 1
75 0 0 1 1
76 0 0 1 1
77 0 0 1 1
78 0 0 1 1
79 0 0 1 1
80 0 0 1 1
81 0 0 1 1
82 0 0 1 1
83 0 0 1 1
84 0 0 1 1
85 0 0 1 1
86 0 0 1 1
87 0 0 1 1
88 0 0 1 1
89 0 0 1 1
90 0 0 1 1
91 0 0 1.35 1.35
92 0 0 1.35 1.795
93 0 0 1.795 1.4308
94 0 0 1.795 1.5944
95 0 0 1.4308 1.4308
96 0 0 1.5944 1.4308
97 0 0 1.5944 1.5944
98 0 0 1 1
99 0 0 1 1
100 0 0 1 1

Dihedral Coeffs # class2

1 0 0 0.0316 0 -0.1681 0
2 -0.1432 0 0.0617 0 -0.1083 0
3 0.7137 0 0.266 0 -0.2545 0
4 0 0 0.0316 0 -0.1681 0
5 -0.1435 0 0.253 0 -0.0905 0
6 -0.1432 0 0.0617 0 -0.1083 0
7 -0.5203 0 -0.3028 0 -0.345 0
8 0.5302 0 0 0 -0.3966 0
9 -0.5203 0 -0.3028 0 -0.345 0
10 -0.182 0 -0.1084 0 -0.7047 0
11 -0.1435 0 0.253 0 -0.0905 0
12 -0.1432 0 0.0617 0 -0.1083 0
13 -0.5203 0 -0.3028 0 -0.345 0
14 0.5302 0 0 0 -0.3966 0
15 0.5302 0 0 0 -0.3966 0
16 0 0 0 0 0 0
17 0 0 0 0 0 0
18 0 0 0 0 0 0
19 0 0 0 0 0 0
20 0 0 0 0 0 0
21 0 0 0 0 0 0
22 0 0 0 0 0 0
23 0 0 0 0 0 0
24 0 0 0 0 0 0
25 0 0 0 0 0 0
26 0 0 0 0 0 0
27 0 0 0 0 0 0
28 0 0 0 0 0 0
29 0 0 0 0 0 0
30 0 0 0 0 0 0
31 0 0 0 0 0 0
32 0 0 0 0 0 0
33 0 0 0 0 0 0
34 0 0 0 0 0 0
35 0 0 0 0 0 0
36 0 0 0 0 0 0
37 0 0 0 0 0 0
38 0 0 0 0 0 0
39 0 0 0 0 0 0
40 0 0 0 0 0 0
41 0 0 0 0 0 0
42 0 0 0 0 0 0
43 0 0 0 0 0 0
44 0 0 0 0 0 0
45 0 0 0 0 0 0
46 0 0 0 0 0 0
47 0 0 0 0 0 0
48 0 0 0 0 0 0
49 0 0 0 0 0 0
50 0 0 0 0 0 0
51 0 0 0 0 0 0
52 0 0 0 0 0 0
53 0 0 0 0 0 0
54 0 0 0 0 0 0
55 0 0 0 0 0 0
56 0 0 0 0 0 0
57 0 0 0 0 0 0
58 0 0 0 0 0 0
59 0 0 0 0 0 0
60 0 0 0 0 0 0
61 0 0 0 0 0 0
62 0 0 0 0 0 0
63 0 0 0 0 0 0
64 0 0 0 0 0 0
65 0 0 0 0 0 0
66 0 0 0 0 0 0
67 0 0 0 0 0 0
68 0 0 0 0 0 0
69 0 0 0 0 0 0
70 0 0 0 0 0 0
71 0 0 0 0 0 0
72 0 0 0 0 0 0
73 0 0 0 0 0 0
74 0 0 0 0 0 0
75 0 0 0 0 0 0
76 0 0 0 0 0 0
77 0 0 0 0 0 0
78 0 0 0 0 0 0
79 0 0 0 0 0 0
80 0 0 0 0 0 0
81 0 0 0 0 0 0
82 0 0 0 0 0 0
83 0 0 0 0 0 0
84 0 0 0 0 0 0
85 0 0 0 0 0 0
86 0 0 0 0 0 0
87 0 0 0 0 0 0
88 0 0 0 0 0 0
89 0 0 0 0 0 0
90 0 0 0 0 0 0
91 0 0 0 0 0.1367 0
92 0 0 0 0 0.1367 0
93 0 0 0.5 0 0 0
94 0 0 0.5 0 0 0
95 0 0 0 0 0 0
96 0 0 0 0 0 0
97 0 0 0 0 0 0
98 0 0 0 0 0 0
99 0 0 0 0 0 0
100 0 0 0 0 0 0

AngleAngleTorsion Coeffs

1 -16.164 112.67 110.77
2 -12.564 110.77 110.77
3 -29.042 112.67 111.27
4 -16.164 112.67 110.77
5 -20.201 110.77 111.27
6 -12.564 110.77 110.77
7 -19.006 111.27 104.5
8 -16.444 108.73 104.5
9 -19.006 111.27 104.5
10 -14.048 111.27 111.27
11 -20.201 110.77 111.27
12 -12.564 110.77 110.77
13 -19.006 111.27 104.5
14 -16.444 108.73 104.5
15 -16.444 108.73 104.5
16 0 100 100
17 0 100 100
18 0 100 100
19 0 100 100
20 0 100 100
21 0 100 100
22 0 100 100
23 0 100 100
24 0 100 100
25 0 100 100
26 0 100 100
27 0 100 100
28 0 100 100
29 0 100 100
30 0 100 100
31 0 100 100
32 0 100 100
33 0 100 100
34 0 100 100
35 0 100 100
36 0 100 100
37 0 100 100
38 0 100 100
39 0 100 100
40 0 100 100
41 0 100 100
42 0 100 100
43 0 100 100
44 0 100 100
45 0 100 100
46 0 100 100
47 0 100 100
48 0 100 100
49 0 100 100
50 0 100 100
51 0 100 100
52 0 100 100
53 0 100 100
54 0 100 100
55 0 100 100
56 0 100 100
57 0 100 100
58 0 100 100
59 0 100 100
60 0 100 100
61 0 100 100
62 0 100 100
63 0 100 100
64 0 100 100
65 0 100 100
66 0 100 100
67 0 100 100
68 0 100 100
69 0 100 100
70 0 100 100
71 0 100 100
72 0 100 100
73 0 100 100
74 0 100 100
75 0 100 100
76 0 100 100
77 0 100 100
78 0 100 100
79 0 100 100
80 0 100 100
81 0 100 100
82 0 100 100
83 0 100 100
84 0 100 100
85 0 100 100
86 0 100 100
87 0 100 100
88 0 100 100
89 0 100 100
90 0 100 100
91 0 109.5 109.5
92 0 109.5 109.5
93 0 120 109.5
94 0 120 109.5
95 0 100 100
96 0 100 100
97 0 100 100
98 0 100 100
99 0 100 100
100 0 100 100

EndBondTorsion Coeffs

1 0.2486 0.2422 -0.0925 0.0814 0.0591 0.2219 1.53 1.101
2 0.213 0.312 0.0777 0.213 0.312 0.0777 1.101 1.101
3 -0.319 0.4411 -0.7174 1.1538 0.8409 -0.9138 1.53 1.42
4 0.2486 0.2422 -0.0925 0.0814 0.0591 0.2219 1.53 1.101
5 0.9681 0.9551 0.0436 0.5903 0.6669 0.8584 1.101 1.42
6 0.213 0.312 0.0777 0.213 0.312 0.0777 1.101 1.101
7 -0.2456 1.0517 -0.7795 0.4741 1.2635 0.5576 1.53 1.42
8 -0.6054 1.3339 0.9648 -0.162 0.1564 -1.1408 1.101 1.42
9 -0.2456 1.0517 -0.7795 0.4741 1.2635 0.5576 1.53 1.42
10 1.0165 0.7553 -0.4609 1.0165 0.7553 -0.4609 1.42 1.42
11 0.9681 0.9551 0.0436 0.5903 0.6669 0.8584 1.101 1.42
12 0.213 0.312 0.0777 0.213 0.312 0.0777 1.101 1.101
13 -0.2456 1.0517 -0.7795 0.4741 1.2635 0.5576 1.53 1.42
14 -0.6054 1.3339 0.9648 -0.162 0.1564 -1.1408 1.101 1.42
15 -0.6054 1.3339 0.9648 -0.162 0.1564 -1.1408 1.101 1.42
16 0 0 0 0 0 0 1 1
17 0 0 0 0 0 0 1 1
18 0 0 0 0 0 0 1 1
19 0 0 0 0 0 0 1 1
20 0 0 0 0 0 0 1 1
21 0 0 0 0 0 0 1 1
22 0 0 0 0 0 0 1 1
23 0 0 0 0 0 0 1 1
24 0 0 0 0 0 0 1 1
25 0 0 0 0 0 0 1 1
26 0 0 0 0 0 0 1 1
27 0 0 0 0 0 0 1 1
28 0 0 0 0 0 0 1 1
29 0 0 0 0 0 0 1 1
30 0 0 0 0 0 0 1 1
31 0 0 0 0 0 0 1 1
32 0 0 0 0 0 0 1 1
33 0 0 0 0 0 0 1 1
34 0 0 0 0 0 0 1 1
35 0 0 0 0 0 0 1 1
36 0 0 0 0 0 0 1 1
37 0 0 0 0 0 0 1 1
38 0 0 0 0 0 0 1 1
39 0 0 0 0 0 0 1 1
40 0 0 0 0 0 0 1 1
41 0 0 0 0 0 0 1 1
42 0 0 0 0 0 0 1 1
43 0 0 0 0 0 0 1 1
44 0 0 0 0 0 0 1 1
45 0 0 0 0 0 0 1 1
46 0 0 0 0 0 0 1 1
47 0 0 0 0 0 0 1 1
48 0 0 0 0 0 0 1 1
49 0 0 0 0 0 0 1 1
50 0 0 0 0 0 0 1 1
51 0 0 0 0 0 0 1 1
52 0 0 0 0 0 0 1 1
53 0 0 0 0 0 0 1 1
54 0 0 0 0 0 0 1 1
55 0 0 0 0 0 0 1 1
56 0 0 0 0 0 0 1 1
57 0 0 0 0 0 0 1 1
58 0 0 0 0 0 0 1 1
59 0 0 0 0 0 0 1 1
60 0 0 0 0 0 0 1 1
61 0 0 0 0 0 0 1 1
62 0 0 0 0 0 0 1 1
63 0 0 0 0 0 0 1 1
64 0 0 0 0 0 0 1 1
65 0 0 0 0 0 0 1 1
66 0 0 0 0 0 0 1 1
67 0 0 0 0 0 0 1 1
68 0 0 0 0 0 0 1 1
69 0 0 0 0 0 0 1 1
70 0 0 0 0 0 0 1 1
71 0 0 0 0 0 0 1 1
72 0 0 0 0 0 0 1 1
73 0 0 0 0 0 0 1 1
74 0 0 0 0 0 0 1 1
75 0 0 0 0 0 0 1 1
76 0 0 0 0 0 0 1 1
77 0 0 0 0 0 0 1 1
78 0 0 0 0 0 0 1 1
79 0 0 0 0 0 0 1 1
80 0 0 0 0 0 0 1 1
81 0 0 0 0 0 0 1 1
82 0 0 0 0 0 0 1 1
83 0 0 0 0 0 0 1 1
84 0 0 0 0 0 0 1 1
85 0 0 0 0 0 0 1 1
86 0 0 0 0 0 0 1 1
87 0 0 0 0 0 0 1 1
88 0 0 0 0 0 0 1 1
89 0 0 0 0 0 0 1 1
90 0 0 0 0 0 0 1 1
91 0 0 0 0 0 0 1.35 1.4308
92 0 0 0 0 0 0 1.35 1.5944
93 0 0 0 0 0 0 1.5944 1.795
94 0 0 0 0 0 0 1.5944 1.4308
95 0 0 0 0 0 0 1 1
96 0 0 0 0 0 0 1 1
97 0 0 0 0 0 0 1 1
98 0 0 0 0 0 0 1 1
99 0 0 0 0 0 0 1 1
100 0 0 0 0 0 0 1 1

MiddleBondTorsion Coeffs

1 -14.879 -3.6581 -0.3138 1.53
2 -14.261 -0.5322 -0.4864 1.53
3 -21.884 -7.6764 -0.6868 1.53
4 -14.879 -3.6581 -0.3138 1.53
5 -16.797 -1.2296 -0.275 1.53
6 -14.261 -0.5322 -0.4864 1.53
7 -5.9288 -2.7007 -0.3175 1.42
8 -6.8007 -4.6546 -1.4101 1.42
9 -5.9288 -2.7007 -0.3175 1.42
10 -17.259 -3.6157 -0.8364 1.53
11 -16.797 -1.2296 -0.275 1.53
12 -14.261 -0.5322 -0.4864 1.53
13 -5.9288 -2.7007 -0.3175 1.42
14 -6.8007 -4.6546 -1.4101 1.42
15 -6.8007 -4.6546 -1.4101 1.42
16 0 0 0 1
17 0 0 0 1
18 0 0 0 1
19 0 0 0 1
20 0 0 0 1
21 0 0 0 1
22 0 0 0 1
23 0 0 0 1
24 0 0 0 1
25 0 0 0 1
26 0 0 0 1
27 0 0 0 1
28 0 0 0 1
29 0 0 0 1
30 0 0 0 1
31 0 0 0 1
32 0 0 0 1
33 0 0 0 1
34 0 0 0 1
35 0 0 0 1
36 0 0 0 1
37 0 0 0 1
38 0 0 0 1
39 0 0 0 1
40 0 0 0 1
41 0 0 0 1
42 0 0 0 1
43 0 0 0 1
44 0 0 0 1
45 0 0 0 1
46 0 0 0 1
47 0 0 0 1
48 0 0 0 1
49 0 0 0 1
50 0 0 0 1
51 0 0 0 1
52 0 0 0 1
53 0 0 0 1
54 0 0 0 1
55 0 0 0 1
56 0 0 0 1
57 0 0 0 1
58 0 0 0 1
59 0 0 0 1
60 0 0 0 1
61 0 0 0 1
62 0 0 0 1
63 0 0 0 1
64 0 0 0 1
65 0 0 0 1
66 0 0 0 1
67 0 0 0 1
68 0 0 0 1
69 0 0 0 1
70 0 0 0 1
71 0 0 0 1
72 0 0 0 1
73 0 0 0 1
74 0 0 0 1
75 0 0 0 1
76 0 0 0 1
77 0 0 0 1
78 0 0 0 1
79 0 0 0 1
80 0 0 0 1
81 0 0 0 1
82 0 0 0 1
83 0 0 0 1
84 0 0 0 1
85 0 0 0 1
86 0 0 0 1
87 0 0 0 1
88 0 0 0 1
89 0 0 0 1
90 0 0 0 1
91 0 0 0 1.795
92 0 0 0 1.795
93 0 0 0 1.5944
94 0 0 0 1.5944
95 0 0 0 1
96 0 0 0 1
97 0 0 0 1
98 0 0 0 1
99 0 0 0 1
100 0 0 0 1

BondBond13 Coeffs

1 0 1.53 1.101
2 0 1.101 1.101
3 0 1.53 1.42
4 0 1.53 1.101
5 0 1.101 1.42
6 0 1.101 1.101
7 0 1.53 1.42
8 0 1.101 1.42
9 0 1.53 1.42
10 0 1.42 1.42
11 0 1.101 1.42
12 0 1.101 1.101
13 0 1.53 1.42
14 0 1.101 1.42
15 0 1.101 1.42
16 0 1 1
17 0 1 1
18 0 1 1
19 0 1 1
20 0 1 1
21 0 1 1
22 0 1 1
23 0 1 1
24 0 1 1
25 0 1 1
26 0 1 1
27 0 1 1
28 0 1 1
29 0 1 1
30 0 1 1
31 0 1 1
32 0 1 1
33 0 1 1
34 0 1 1
35 0 1 1
36 0 1 1
37 0 1 1
38 0 1 1
39 0 1 1
40 0 1 1
41 0 1 1
42 0 1 1
43 0 1 1
44 0 1 1
45 0 1 1
46 0 1 1
47 0 1 1
48 0 1 1
49 0 1 1
50 0 1 1
51 0 1 1
52 0 1 1
53 0 1 1
54 0 1 1
55 0 1 1
56 0 1 1
57 0 1 1
58 0 1 1
59 0 1 1
60 0 1 1
61 0 1 1
62 0 1 1
63 0 1 1
64 0 1 1
65 0 1 1
66 0 1 1
67 0 1 1
68 0 1 1
69 0 1 1
70 0 1 1
71 0 1 1
72 0 1 1
73 0 1 1
74 0 1 1
75 0 1 1
76 0 1 1
77 0 1 1
78 0 1 1
79 0 1 1
80 0 1 1
81 0 1 1
82 0 1 1
83 0 1 1
84 0 1 1
85 0 1 1
86 0 1 1
87 0 1 1
88 0 1 1
89 0 1 1
90 0 1 1
91 0 1.35 1.4308
92 0 1.35 1.5944
93 0 1.5944 1.795
94 0 1.5944 1.4308
95 0 1 1
96 0 1 1
97 0 1 1
98 0 1 1
99 0 1 1
100 0 1 1

AngleTorsion Coeffs

1 -0.2454 0 -0.1136 0.3113 0.4516 -0.1988 112.67 110.77
2 -0.8085 0.5569 -0.2466 -0.8085 0.5569 -0.2466 110.77 110.77
3 0.5623 -0.3041 -0.4015 0.9672 -0.7566 -1.2331 112.67 111.27
4 -0.2454 0 -0.1136 0.3113 0.4516 -0.1988 112.67 110.77
5 2.3668 2.492 -1.0122 -0.1892 0.4918 0.7273 110.77 111.27
6 -0.8085 0.5569 -0.2466 -0.8085 0.5569 -0.2466 110.77 110.77
7 -2.7466 1.4877 -0.8955 0.5676 0.945 0.0703 111.27 104.5
8 -1.8234 1.6393 0.5144 -0.7777 0.434 -0.6653 108.73 104.5
9 -2.7466 1.4877 -0.8955 0.5676 0.945 0.0703 111.27 104.5
10 0.5511 0.9737 -0.6673 0.5511 0.9737 -0.6673 111.27 111.27
11 2.3668 2.492 -1.0122 -0.1892 0.4918 0.7273 110.77 111.27
12 -0.8085 0.5569 -0.2466 -0.8085 0.5569 -0.2466 110.77 110.77
13 -2.7466 1.4877 -0.8955 0.5676 0.945 0.0703 111.27 104.5
14 -1.8234 1.6393 0.5144 -0.7777 0.434 -0.6653 108.73 104.5
15 -1.8234 1.6393 0.5144 -0.7777 0.434 -0.6653 108.73 104.5
16 0 0 0 0 0 0 100 100
17 0 0 0 0 0 0 100 100
18 0 0 0 0 0 0 100 100
19 0 0 0 0 0 0 100 100
20 0 0 0 0 0 0 100 100
21 0 0 0 0 0 0 100 100
22 0 0 0 0 0 0 100 100
23 0 0 0 0 0 0 100 100
24 0 0 0 0 0 0 100 100
25 0 0 0 0 0 0 100 100
26 0 0 0 0 0 0 100 100
27 0 0 0 0 0 0 100 100
28 0 0 0 0 0 0 100 100
29 0 0 0 0 0 0 100 100
30 0 0 0 0 0 0 100 100
31 0 0 0 0 0 0 100 100
32 0 0 0 0 0 0 100 100
33 0 0 0 0 0 0 100 100
34 0 0 0 0 0 0 100 100
35 0 0 0 0 0 0 100 100
36 0 0 0 0 0 0 100 100
37 0 0 0 0 0 0 100 100
38 0 0 0 0 0 0 100 100
39 0 0 0 0 0 0 100 100
40 0 0 0 0 0 0 100 100
41 0 0 0 0 0 0 100 100
42 0 0 0 0 0 0 100 100
43 0 0 0 0 0 0 100 100
44 0 0 0 0 0 0 100 100
45 0 0 0 0 0 0 100 100
46 0 0 0 0 0 0 100 100
47 0 0 0 0 0 0 100 100
48 0 0 0 0 0 0 100 100
49 0 0 0 0 0 0 100 100
50 0 0 0 0 0 0 100 100
51 0 0 0 0 0 0 100 100
52 0 0 0 0 0 0 100 100
53 0 0 0 0 0 0 100 100
54 0 0 0 0 0 0 100 100
55 0 0 0 0 0 0 100 100
56 0 0 0 0 0 0 100 100
57 0 0 0 0 0 0 100 100
58 0 0 0 0 0 0 100 100
59 0 0 0 0 0 0 100 100
60 0 0 0 0 0 0 100 100
61 0 0 0 0 0 0 100 100
62 0 0 0 0 0 0 100 100
63 0 0 0 0 0 0 100 100
64 0 0 0 0 0 0 100 100
65 0 0 0 0 0 0 100 100
66 0 0 0 0 0 0 100 100
67 0 0 0 0 0 0 100 100
68 0 0 0 0 0 0 100 100
69 0 0 0 0 0 0 100 100
70 0 0 0 0 0 0 100 100
71 0 0 0 0 0 0 100 100
72 0 0 0 0 0 0 100 100
73 0 0 0 0 0 0 100 100
74 0 0 0 0 0 0 100 100
75 0 0 0 0 0 0 100 100
76 0 0 0 0 0 0 100 100
77 0 0 0 0 0 0 100 100
78 0 0 0 0 0 0 100 100
79 0 0 0 0 0 0 100 100
80 0 0 0 0 0 0 100 100
81 0 0 0 0 0 0 100 100
82 0 0 0 0 0 0 100 100
83 0 0 0 0 0 0 100 100
84 0 0 0 0 0 0 100 100
85 0 0 0 0 0 0 100 100
86 0 0 0 0 0 0 100 100
87 0 0 0 0 0 0 100 100
88 0 0 0 0 0 0 100 100
89 0 0 0 0 0 0 100 100
90 0 0 0 0 0 0 100 100
91 0 0 0 0 0 0 109.5 109.5
92 0 0 0 0 0 0 109.5 109.5
93 0 0 0 0 0 0 120 109.5
94 0 0 0 0 0 0 120 109.5
95 0 0 0 0 0 0 100 100
96 0 0 0 0 0 0 100 100
97 0 0 0 0 0 0 100 100
98 0 0 0 0 0 0 100 100
99 0 0 0 0 0 0 100 100
100 0 0 0 0 0 0 100 100

Improper Coeffs # class2

1 0 0
2 0 0
3 0 0
4 0 0
5 0 0
6 0 0
7 0 0
8 0 0
9 0 0
10 0 0
11 0 0
12 0 0
13 0 0
14 0 0
15 0 0
16 0 0
17 0 0
18 0 0
19 0 0
20 0 0
21 0 0
22 0 0
23 0 0
24 0 0
25 0 0
26 0 0
27 0 0
28 0 0
29 0 0
30 0 0
31 0 0
32 0 0
33 0 0
34 0 0
35 0 0
36 0 0
37 0 0
38 0 0
39 0 0
40 0 0
41 0 0
42 0 0
43 0 0
44 0 0
45 0 0
46 0 0
47 0 0
48 0 0
49 0 0
50 0 0
51 0 0
52 0 0
53 0 0
54 0 0
55 0 0
56 0 0
57 0 0
58 0 0
59 0 0
60 0 0
61 0 0
62 0 0
63 0 0
64 0 0
65 0 0
66 0 0
67 0 0
68 0 0
69 0 0
70 0 0
71 0 0
72 0 0
73 0 0
74 0 0
75 0 0
76 0 0
77 0 0
78 0 0
79 0 0
80 0 0
81 0 0
82 0 0
83 0 0
84 0 0
85 0 0
86 0 0
87 0 0
88 0 0
89 0 0
90 0 0
91 0 0
92 0 0
93 0 0
94 0 0
95 0 0
96 0 0
97 0 0
98 0 0
99 0 0
100 0 0

AngleAngle Coeffs

1 0.2738 -0.4825 0.2738 110.77 110.77 107.66
2 -0.3157 -0.3157 -0.3157 107.66 107.66 107.66
3 -1.3199 -1.3199 0.1184 112.67 110.77 110.77
4 0.2738 -0.4825 0.2738 110.77 110.77 107.66
5 0.2738 -0.4825 0.2738 110.77 110.77 107.66
6 3.9177 2.5926 0.1689 110.77 111.27 108.73
7 0.2738 -0.4825 0.2738 110.77 110.77 107.66
8 2.4259 2.4259 2.1283 107.66 108.73 108.73
9 3.9177 2.5926 0.1689 110.77 111.27 108.73
10 0.2738 -0.4825 0.2738 110.77 110.77 107.66
11 2.4259 2.4259 2.1283 107.66 108.73 108.73
12 -0.3157 -0.3157 -0.3157 107.66 107.66 107.66
13 0 0 0 100 100 100
14 0 0 0 100 100 100
15 0 0 0 100 100 100
16 0 0 0 100 100 100
17 0 0 0 100 100 100
18 0 0 0 100 100 100
19 0 0 0 100 100 100
20 0 0 0 100 100 100
21 0 0 0 100 100 100
22 0 0 0 100 100 100
23 0 0 0 100 100 100
24 0 0 0 100 100 100
25 0 0 0 100 100 100
26 0 0 0 100 100 100
27 0 0 0 100 100 100
28 0 0 0 100 100 100
29 0 0 0 100 100 100
30 0 0 0 100 100 100
31 0 0 0 100 100 100
32 0 0 0 100 100 100
33 0 0 0 100 100 100
34 0 0 0 100 100 100
35 0 0 0 100 100 100
36 0 0 0 100 100 100
37 0 0 0 100 100 100
38 0 0 0 100 100 100
39 0 0 0 100 100 100
40 0 0 0 100 100 100
41 0 0 0 100 100 100
42 0 0 0 100 100 100
43 0 0 0 100 100 100
44 0 0 0 100 100 100
45 0 0 0 100 100 100
46 0 0 0 100 100 100
47 0 0 0 100 100 100
48 0 0 0 100 100 100
49 0 0 0 100 100 100
50 0 0 0 100 100 100
51 0 0 0 100 100 100
52 0 0 0 100 100 100
53 0 0 0 100 100 100
54 0 0 0 100 100 100
55 0 0 0 100 100 100
56 0 0 0 100 100 100
57 0 0 0 100 100 100
58 0 0 0 100 100 100
59 0 0 0 100 100 100
60 0 0 0 100 100 100
61 0 0 0 100 100 100
62 0 0 0 100 100 100
63 0 0 0 100 100 100
64 0 0 0 100 100 100
65 0 0 0 100 100 100
66 0 0 0 100 100 100
67 0 0 0 100 100 100
68 0 0 0 100 100 100
69 0 0 0 100 100 100
70 0 0 0 100 100 100
71 0 0 0 100 100 100
72 0 0 0 100 100 100
73 0 0 0 100 100 100
74 0 0 0 100 100 100
75 0 0 0 100 100 100
76 0 0 0 100 100 100
77 0 0 0 100 100 100
78 0 0 0 100 100 100
79 0 0 0 100 100 100
80 0 0 0 100 100 100
81 0 0 0 100 100 100
82 0 0 0 100 100 100
83 0 0 0 100 100 100
84 0 0 0 100 100 100
85 0 0 0 100 100 100
86 0 0 0 100 100 100
87 0 0 0 100 100 100
88 0 0 0 100 100 100
89 0 0 0 100 100 100
90 0 0 0 100 100 100
91 0 0 0 120 120 120
92 0 0 0 120 120 120
93 0 0 0 120 120 120
94 0 0 0 120 120 120
95 0 0 0 120 120 120
96 0 0 0 100 100 100
97 0 0 0 100 100 100
98 0 0 0 100 100 100
99 0 0 0 100 100 100
100 0 0 0 100 100 100

Atoms # full

229 1 5 0.053 4.80463736444442 2.826658409386784 2.358973803408936 0 0 0
54 1 2 0.054 4.856112274708196 2.8963656355960476 1.2306808703555243 0 0 0
252 1 5 0.053 2.586263797528164 3.323896762558019 5.541002641751872 0 0 0
6224 65 92 -0.08260000000000001 3.9340749672240976 5.730344071016619 4.229583434866625 1 0 0
70 1 6 -0.32 4.3848464738103905 2.451709120156147 6.007317017273142 0 0 0
4615 13 5 0.053 39.2511156413364 4.0593149455247675 2.2416819270182966 0 1 0
52 1 6 -0.32 3.712721636513328 4.934695761419821 1.019994752910492 0 0 0
254 1 5 0.053 4.0307158655771405 4.973556815762219 6.6489988669675055 0 0 0
55 1 6 -0.32 5.990467764646754 2.2469471327274353 0.795293782123485 0 0 0
53 1 2 0.054 4.966254423732319 4.290032672813152 0.8023686831405085 0 0 0
253 1 5 0.053 2.4139656784424766 4.880563394739457 7.299974206926891 0 0 0
3820 11 5 0.053 2.064819933591713 19.358131223290492 15.734164459696022 0 0 0
56 1 2 0.054 6.021803550719247 0.864162672636412 1.2515964847550551 0 0 0
457 2 2 0.054 32.27875594560525 19.4492330937535 7.717441360259717 0 0 0
223 1 5 0.053 1.5676693875674284 6.034753741737038 1.2368964445910369 0 0 0
227 1 5 0.053 5.678006784003328 4.879174532560146 1.3679351150441053 0 0 0
71 1 2 0.054 3.086251422786903 3.0582886021959435 6.421696363342585 0 0 0
72 1 2 0.054 3.3496567535593957 4.34742633587288 7.17688303980218 0 0 0
251 1 5 0.053 2.4302846927609503 2.47002365294334 7.079384766640434 0 0 0
51 1 2 0.054 3.440145183851538 6.052962538195854 0.26226778850581184 0 0 0
69 1 2 0.054 4.111691854640669 1.2921276359426002 5.291426149713192 0 0 0
516 2 6 -0.32 17.598559603414646 0.10592216348065445 7.407594554760076 0 1 0
2374 7 5 0.053 6.797193098432514 4.560708347307688 5.9141489877976525 1 0 0
231 1 5 0.053 6.145676487291372 0.8705267645380365 2.33221709400483 0 0 0
4439 13 2 0.054 39.20856203056629 2.9995038256869866 2.2670529776040853 0 1 0
4616 13 5 0.053 0.7927217792670076 2.5552082138293053 2.7283518920724825 1 1 0
4613 13 5 0.053 39.23889289149483 2.7212949037574234 4.770342447741824 0 1 0
225 1 5 0.053 4.020320088184043 6.838607070928596 0.741795947749474 0 0 0
3572 10 5 0.053 11.56185138118829 19.325878364744334 4.885228736935624 0 0 1
593 2 5 0.053 30.853758542690922 0.141478836941752 2.475063650557608 0 1 0
4419 13 2 0.054 38.49645419212566 5.393602345092234 19.226540677323808 0 1 0
249 1 5 0.053 3.5480021338195553 1.4519091351615843 4.287760187446101 0 0 0
220 1 5 0.053 0.6893105131368864 10.373811559056703 0.2833392862312767 0 0 0
5958 48 92 -0.08260000000000001 31.35887114055913 8.738178871586815 0.6523980323026767 0 1 1
180 1 5 0.053 6.689174123012382 6.220043178563206 3.4876977080771665 0 0 0
2215 7 6 -0.32 10.07168440978669 0.8260899345041823 4.147321755735165 1 0 0
179 1 5 0.053 7.590479080112935 6.1494261723451515 1.9873368715678315 0 0 0
16 1 6 -0.32 8.625870595657558 5.4753453747076755 3.7326629761153507 0 0 0
177 1 5 0.053 9.451367972343501 4.793821458273009 1.9636848731394592 0 0 0
15 1 2 0.054 9.762610704382135 5.198666576673127 2.8731942389880896 0 0 0
14 1 2 0.054 10.487627867969286 4.073473018310971 3.4829498083951553 0 0 0
13 1 6 -0.32 11.118062925552742 4.479668461596552 4.6564180226359575 0 0 0
175 1 5 0.053 9.760620896152398 3.3039681533582197 3.607496323266429 0 0 0
176 1 5 0.053 11.206934016553259 3.6946394743304136 2.7168467019979268 0 0 0
2218 7 6 -0.32 10.935624852377012 1.4732962096851805 1.5503364003531386 1 0 0
2219 7 2 0.054 11.621181682653312 1.660733568701073 0.31581224674441144 1 0 0
178 1 5 0.053 10.412943866675608 6.109378719266292 2.744873868502312 0 0 0
17 1 2 0.054 7.708735433990792 6.436214912331409 3.0933957095665927 0 0 0
2387 7 5 0.053 11.426825372891452 3.824484322559771 0.5418170859465834 1 0 0
12 1 2 0.054 11.8902888235827 3.4533381830588823 5.223066772115788 0 0 0
173 1 5 0.053 11.321817686998916 2.4889456682084714 5.056073412893222 0 0 0
233 1 5 0.053 8.120982026076913 0.8201471911509337 0.7350540250690174 0 0 0
174 1 5 0.053 12.917884386109101 3.3566902339544624 4.863125793009407 0 0 0
2385 7 5 0.053 12.744570973596034 1.5897148265648107 0.5009878077706352 1 0 0
48 1 2 0.054 1.365385572514153 8.34615989354421 0.38254634676434274 0 0 0
6237 77 90 0.7 9.568085928334597 5.072408624971522 5.754820440777568 0 0 0
5820 38 92 -0.08260000000000001 24.569500751411333 13.691134481090726 2.1727221295996304 0 0 1
886 3 5 0.053 22.868954934206762 17.795082451773553 2.1159466758838112 0 0 1
3721 11 2 0.054 15.765261537697691 0.8640635479037441 12.992024685281413 0 0 0
2212 7 6 -0.32 8.40319851320822 2.634674964026299 6.044293039731423 1 0 0
1491 5 6 -0.32 28.536976279444488 6.689799856597483 1.0085976376567565 0 0 0
3901 11 5 0.053 16.689517916961236 0.7228701857533637 13.48266446587856 0 0 0
4548 13 5 0.053 35.59465613968441 7.360226872661548 19.135084530258226 0 1 0
5397 15 5 0.053 10.36555656541288 19.537280821109704 8.50764932444829 0 0 1
878 3 6 -0.32 16.531939601952562 19.593972994472864 5.639283602428775 1 0 0
5793 37 92 -0.08260000000000001 13.330034366214159 3.2867412004051553 1.9125225857514931 0 0 1
489 2 6 -0.32 23.674229605872096 0.009519511534703977 2.3159557432955675 0 1 0
5794 37 92 -0.08260000000000001 13.655759565681425 5.010600709952729 3.194901139494004 0 0 1
5792 37 92 -0.08260000000000001 15.333547112385885 3.6098859582898544 2.920863952387229 0 0 1
5791 37 91 0.21 14.27403063431173 4.1953846876643555 2.289794787410284 0 0 1
5795 37 95 0.3395 14.733512790254462 5.254548043798415 0.8737327244025429 0 0 1
5797 37 94 -0.2513 16.08872737455325 4.924323251362403 0.6380774004956077 0 0 1
3463 10 5 0.053 18.234627631724297 4.427807388037366 3.0672797138236714 0 0 1
3298 10 6 -0.32 17.693337351095433 2.593992996889022 1.179462112382373 0 0 1
3457 10 5 0.053 15.261153411849396 1.813624620633408 0.4333613908863595 0 0 1
3297 10 2 0.054 17.36405932311323 1.3254576529687683 0.6810466431618939 0 0 1
721 2 5 0.053 18.402898593839122 2.072705274355118 5.522986701619514 0 1 0
3466 10 5 0.053 17.956747279335826 6.679412925851324 2.749447956988954 0 0 1
5648 27 93 -0.2982 18.442957134718917 5.71539109779264 5.755541085127677 0 0 1
5944 47 92 -0.08260000000000001 15.996649597919676 0.3459919127212398 4.554143458769966 0 1 0
5798 37 93 -0.2982 14.975710104905247 6.838027155941651 1.3432930413034556 0 0 1
5654 27 92 -0.08260000000000001 16.061439536248045 3.963493986132551 5.708889316092981 0 0 1
4262 12 5 0.053 14.870734926713494 19.595442616672756 18.984617061924247 0 0 0
2404 7 5 0.053 8.138352705045603 12.592435256348109 0.13532263329273408 1 0 0
146 1 2 0.054 16.259333216584338 0.5750268268846936 16.971404667062053 0 0 0
5466 15 5 0.053 34.55524094575474 0.1387399756164378 0.9529760341418221 -1 1 1
492 2 6 -0.32 21.82381317826655 1.3159637728497808 0.9819087969222617 0 1 0
3299 10 2 0.054 18.80183537881924 2.531537401021621 2.0551529325811666 0 0 1
3461 10 5 0.053 18.63297259986097 1.940122373161472 2.944288861054542 0 0 1
3301 10 6 -0.32 19.482298305499814 4.650254581580674 1.4332728146894915 0 0 1
3300 10 2 0.054 19.114242641538883 3.9057225224624146 2.571667415626372 0 0 1
3460 10 5 0.053 19.663700047948733 2.1448712492379887 1.3929796089750028 0 0 1
3302 10 2 0.054 19.759965478851065 5.9927325947806995 1.5956275134872795 0 0 1
5645 27 95 0.3395 19.94233457209804 6.222347838350551 5.798839161558213 0 0 1
3462 10 5 0.053 19.977469448804268 3.9354352738296066 3.2380756545072473 0 0 1
490 2 2 0.054 22.88849767506304 1.0415718468883708 2.9708539235989955 0 1 0
491 2 2 0.054 22.552703009821048 2.1115894928772283 1.8935983871225963 0 1 0
690 2 5 0.053 22.015598352740177 2.882200095197204 2.3771028674705645 0 1 0
688 2 5 0.053 23.40135756352423 1.48769429364147 3.7914890469773503 0 1 0
691 2 5 0.053 23.46493162773549 2.590746229016951 1.511834172067539 0 1 0
719 2 5 0.053 21.16035714476876 1.8295895653611658 5.0518974772289935 0 1 0
5749 34 92 -0.08260000000000001 24.15096980913701 4.2852664294899245 3.3675669548918066 0 0 1
5746 34 91 0.21 24.52788544304914 5.432235067805369 3.9854043583595513 0 0 1
5748 34 92 -0.08260000000000001 25.847133597785266 5.374131263293304 4.105087558924481 0 0 1
3464 10 5 0.053 20.56314188047827 6.079466730678758 2.403363665696965 0 0 1